Created on Fri Feb 05 16:36:42 2021 # created using lammp_interface code: J. Phys. Chem. Lett. 8, 357–363 (2017)

         624 atoms
         792 bonds
        1536 angles
        1536 dihedrals
         864 impropers

           4 atom types
           6 bond types
           8 angle types
           3 dihedral types
           1 improper types
           0.000000  26.303400 xlo xhi
           0.000000  26.303400 ylo yhi
           0.000000  26.303400 zlo zhi
           0.000000   0.000000   0.000000 xy xz yz

Masses

    1    15.999400000 # O_2
    2    63.546000000 # Cu4+2
    3    12.010700000 # C_R
    4     1.007940000 # H_

Bond Coeffs

    1      221.999373        2.029549  # O_2 Cu4+2
    2      714.557442        1.269010  # O_2 C_R
    3       70.296579        3.032715  # Cu4+2 Cu4+2
    4      391.669513        1.458000  # C_R C_R
    5      462.655054        1.379256  # C_R C_R
    6      357.440381        1.081418  # C_R H_

Angle Coeffs

    1      154.420358              -1               3 # Cu4+2 O_2 C_R
    2      222.868952               1               4 # O_2 Cu4+2 O_2
    3      105.916453               1               4 # O_2 Cu4+2 Cu4+2
    4      413.556852              -1               3 # O_2 C_R O_2
    5      275.428492              -1               3 # O_2 C_R C_R
    6      204.366560              -1               3 # C_R C_R C_R
    7      222.595017              -1               3 # C_R C_R C_R
    8      114.578032              -1               3 # H_ C_R C_R

Dihedral Coeffs

    1        2.245703              -1               2 # Cu4+2 O_2 C_R C_R
    2        0.555556              -1               2 # O_2 C_R C_R C_R
    3        1.497136              -1               2 # C_R C_R C_R C_R

Improper Coeffs

    1        2.000000        1.000000       -1.000000        0.000000               0 # O_2 C_R O_2 C_R

Pair Coeffs

    1        0.060000        3.118146 # O_2 O_2
    2        0.005000        3.113691 # Cu4+2 Cu4+2
    3        0.105000        3.430851 # C_R C_R
    4        0.044000        2.571134 # H_ H_

Atoms

       1      444        1     0.00000    4.94057   19.51791   25.01348
       2      444        1     0.00000    4.94057    6.36621   11.86178
       3      444        1     0.00000   18.09227   19.51791   11.86178
       4      444        1     0.00000   18.09227    6.36621   25.01348
       5      444        1     0.00000   21.36283    6.78549   25.01348
       6      444        1     0.00000   21.36283   19.93719   11.86178
       7      444        1     0.00000    8.21113    6.78549   11.86178
       8      444        1     0.00000    8.21113   19.93719   25.01348
       9      444        1     0.00000   21.36283   19.51791    1.28992
      10      444        1     0.00000   21.36283    6.36621   14.44162
      11      444        1     0.00000    8.21113   19.51791   14.44162
      12      444        1     0.00000    8.21113    6.36621    1.28992
      13      444        1     0.00000    4.94057    6.78549    1.28992
      14      444        1     0.00000    4.94057   19.93719   14.44162
      15      444        1     0.00000   18.09227    6.78549   14.44162
      16      444        1     0.00000   18.09227   19.93719    1.28992
      17      444        1     0.00000   25.01348    4.94057   19.51791
      18      444        1     0.00000   25.01348   18.09227    6.36621
      19      444        1     0.00000   11.86178    4.94057    6.36621
      20      444        1     0.00000   11.86178   18.09227   19.51791
      21      444        1     0.00000   25.01348   21.36283    6.78549
      22      444        1     0.00000   25.01348    8.21113   19.93719
      23      444        1     0.00000   11.86178   21.36283   19.93719
      24      444        1     0.00000   11.86178    8.21113    6.78549
      25      444        1     0.00000    1.28992   21.36283   19.51791
      26      444        1     0.00000    1.28992    8.21113    6.36621
      27      444        1     0.00000   14.44162   21.36283    6.36621
      28      444        1     0.00000   14.44162    8.21113   19.51791
      29      444        1     0.00000    1.28992    4.94057    6.78549
      30      444        1     0.00000    1.28992   18.09227   19.93719
      31      444        1     0.00000   14.44162    4.94057   19.93719
      32      444        1     0.00000   14.44162   18.09227    6.78549
      33      444        1     0.00000   19.51791   25.01348    4.94057
      34      444        1     0.00000   19.51791   11.86178   18.09227
      35      444        1     0.00000    6.36621   25.01348   18.09227
      36      444        1     0.00000    6.36621   11.86178    4.94057
      37      444        1     0.00000    6.78549   25.01348   21.36283
      38      444        1     0.00000    6.78549   11.86178    8.21113
      39      444        1     0.00000   19.93719   25.01348    8.21113
      40      444        1     0.00000   19.93719   11.86178   21.36283
      41      444        1     0.00000   19.51791    1.28992   21.36283
      42      444        1     0.00000   19.51791   14.44162    8.21113
      43      444        1     0.00000    6.36621    1.28992    8.21113
      44      444        1     0.00000    6.36621   14.44162   21.36283
      45      444        1     0.00000    6.78549    1.28992    4.94057
      46      444        1     0.00000    6.78549   14.44162   18.09227
      47      444        1     0.00000   19.93719    1.28992   18.09227
      48      444        1     0.00000   19.93719   14.44162    4.94057
      49      444        1     0.00000   19.51791    4.94057    1.28992
      50      444        1     0.00000   19.51791   18.09227   14.44162
      51      444        1     0.00000    6.36621    4.94057   14.44162
      52      444        1     0.00000    6.36621   18.09227    1.28992
      53      444        1     0.00000    6.78549   21.36283    1.28992
      54      444        1     0.00000    6.78549    8.21113   14.44162
      55      444        1     0.00000   19.93719   21.36283   14.44162
      56      444        1     0.00000   19.93719    8.21113    1.28992
      57      444        1     0.00000   19.51791   21.36283   25.01348
      58      444        1     0.00000   19.51791    8.21113   11.86178
      59      444        1     0.00000    6.36621   21.36283   11.86178
      60      444        1     0.00000    6.36621    8.21113   25.01348
      61      444        1     0.00000    6.78549    4.94057   25.01348
      62      444        1     0.00000    6.78549   18.09227   11.86178
      63      444        1     0.00000   19.93719    4.94057   11.86178
      64      444        1     0.00000   19.93719   18.09227   25.01348
      65      444        1     0.00000    4.94057   25.01348    6.78549
      66      444        1     0.00000    4.94057   11.86178   19.93719
      67      444        1     0.00000   18.09227   25.01348   19.93719
      68      444        1     0.00000   18.09227   11.86178    6.78549
      69      444        1     0.00000   21.36283   25.01348   19.51791
      70      444        1     0.00000   21.36283   11.86178    6.36621
      71      444        1     0.00000    8.21113   25.01348    6.36621
      72      444        1     0.00000    8.21113   11.86178   19.51791
      73      444        1     0.00000   21.36283    1.28992    6.78549
      74      444        1     0.00000   21.36283   14.44162   19.93719
      75      444        1     0.00000    8.21113    1.28992   19.93719
      76      444        1     0.00000    8.21113   14.44162    6.78549
      77      444        1     0.00000    4.94057    1.28992   19.51791
      78      444        1     0.00000    4.94057   14.44162    6.36621
      79      444        1     0.00000   18.09227    1.28992    6.36621
      80      444        1     0.00000   18.09227   14.44162   19.51791
      81      444        1     0.00000   25.01348   19.51791   21.36283
      82      444        1     0.00000   25.01348    6.36621    8.21113
      83      444        1     0.00000   11.86178   19.51791    8.21113
      84      444        1     0.00000   11.86178    6.36621   21.36283
      85      444        1     0.00000   25.01348    6.78549    4.94057
      86      444        1     0.00000   25.01348   19.93719   18.09227
      87      444        1     0.00000   11.86178    6.78549   18.09227
      88      444        1     0.00000   11.86178   19.93719    4.94057
      89      444        1     0.00000    1.28992   19.51791    4.94057
      90      444        1     0.00000    1.28992    6.36621   18.09227
      91      444        1     0.00000   14.44162   19.51791   18.09227
      92      444        1     0.00000   14.44162    6.36621    4.94057
      93      444        1     0.00000    1.28992    6.78549   21.36283
      94      444        1     0.00000    1.28992   19.93719    8.21113
      95      444        1     0.00000   14.44162    6.78549    8.21113
      96      444        1     0.00000   14.44162   19.93719   21.36283
      97      444        1     0.00000   21.36283    6.78549    1.28992
      98      444        1     0.00000   21.36283   19.93719   14.44162
      99      444        1     0.00000    8.21113    6.78549   14.44162
     100      444        1     0.00000    8.21113   19.93719    1.28992
     101      444        1     0.00000    4.94057   19.51791    1.28992
     102      444        1     0.00000    4.94057    6.36621   14.44162
     103      444        1     0.00000   18.09227   19.51791   14.44162
     104      444        1     0.00000   18.09227    6.36621    1.28992
     105      444        1     0.00000    4.94057    6.78549   25.01348
     106      444        1     0.00000    4.94057   19.93719   11.86178
     107      444        1     0.00000   18.09227    6.78549   11.86178
     108      444        1     0.00000   18.09227   19.93719   25.01348
     109      444        1     0.00000   21.36283   19.51791   25.01348
     110      444        1     0.00000   21.36283    6.36621   11.86178
     111      444        1     0.00000    8.21113   19.51791   11.86178
     112      444        1     0.00000    8.21113    6.36621   25.01348
     113      444        1     0.00000    1.28992   21.36283    6.78549
     114      444        1     0.00000    1.28992    8.21113   19.93719
     115      444        1     0.00000   14.44162   21.36283   19.93719
     116      444        1     0.00000   14.44162    8.21113    6.78549
     117      444        1     0.00000    1.28992    4.94057   19.51791
     118      444        1     0.00000    1.28992   18.09227    6.36621
     119      444        1     0.00000   14.44162    4.94057    6.36621
     120      444        1     0.00000   14.44162   18.09227   19.51791
     121      444        1     0.00000   25.01348    4.94057    6.78549
     122      444        1     0.00000   25.01348   18.09227   19.93719
     123      444        1     0.00000   11.86178    4.94057   19.93719
     124      444        1     0.00000   11.86178   18.09227    6.78549
     125      444        1     0.00000   25.01348   21.36283   19.51791
     126      444        1     0.00000   25.01348    8.21113    6.36621
     127      444        1     0.00000   11.86178   21.36283    6.36621
     128      444        1     0.00000   11.86178    8.21113   19.51791
     129      444        1     0.00000    6.78549    1.28992   21.36283
     130      444        1     0.00000    6.78549   14.44162    8.21113
     131      444        1     0.00000   19.93719    1.28992    8.21113
     132      444        1     0.00000   19.93719   14.44162   21.36283
     133      444        1     0.00000   19.51791    1.28992    4.94057
     134      444        1     0.00000   19.51791   14.44162   18.09227
     135      444        1     0.00000    6.36621    1.28992   18.09227
     136      444        1     0.00000    6.36621   14.44162    4.94057
     137      444        1     0.00000    6.78549   25.01348    4.94057
     138      444        1     0.00000    6.78549   11.86178   18.09227
     139      444        1     0.00000   19.93719   25.01348   18.09227
     140      444        1     0.00000   19.93719   11.86178    4.94057
     141      444        1     0.00000   19.51791   25.01348   21.36283
     142      444        1     0.00000   19.51791   11.86178    8.21113
     143      444        1     0.00000    6.36621   25.01348    8.21113
     144      444        1     0.00000    6.36621   11.86178   21.36283
     145      444        1     0.00000    6.78549   21.36283   25.01348
     146      444        1     0.00000    6.78549    8.21113   11.86178
     147      444        1     0.00000   19.93719   21.36283   11.86178
     148      444        1     0.00000   19.93719    8.21113   25.01348
     149      444        1     0.00000   19.51791    4.94057   25.01348
     150      444        1     0.00000   19.51791   18.09227   11.86178
     151      444        1     0.00000    6.36621    4.94057   11.86178
     152      444        1     0.00000    6.36621   18.09227   25.01348
     153      444        1     0.00000    6.78549    4.94057    1.28992
     154      444        1     0.00000    6.78549   18.09227   14.44162
     155      444        1     0.00000   19.93719    4.94057   14.44162
     156      444        1     0.00000   19.93719   18.09227    1.28992
     157      444        1     0.00000   19.51791   21.36283    1.28992
     158      444        1     0.00000   19.51791    8.21113   14.44162
     159      444        1     0.00000    6.36621   21.36283   14.44162
     160      444        1     0.00000    6.36621    8.21113    1.28992
     161      444        1     0.00000   21.36283    1.28992   19.51791
     162      444        1     0.00000   21.36283   14.44162    6.36621
     163      444        1     0.00000    8.21113    1.28992    6.36621
     164      444        1     0.00000    8.21113   14.44162   19.51791
     165      444        1     0.00000    4.94057    1.28992    6.78549
     166      444        1     0.00000    4.94057   14.44162   19.93719
     167      444        1     0.00000   18.09227    1.28992   19.93719
     168      444        1     0.00000   18.09227   14.44162    6.78549
     169      444        1     0.00000    4.94057   25.01348   19.51791
     170      444        1     0.00000    4.94057   11.86178    6.36621
     171      444        1     0.00000   18.09227   25.01348    6.36621
     172      444        1     0.00000   18.09227   11.86178   19.51791
     173      444        1     0.00000   21.36283   25.01348    6.78549
     174      444        1     0.00000   21.36283   11.86178   19.93719
     175      444        1     0.00000    8.21113   25.01348   19.93719
     176      444        1     0.00000    8.21113   11.86178    6.78549
     177      444        1     0.00000    1.28992    6.78549    4.94057
     178      444        1     0.00000    1.28992   19.93719   18.09227
     179      444        1     0.00000   14.44162    6.78549   18.09227
     180      444        1     0.00000   14.44162   19.93719    4.94057
     181      444        1     0.00000    1.28992   19.51791   21.36283
     182      444        1     0.00000    1.28992    6.36621    8.21113
     183      444        1     0.00000   14.44162   19.51791    8.21113
     184      444        1     0.00000   14.44162    6.36621   21.36283
     185      444        1     0.00000   25.01348    6.78549   21.36283
     186      444        1     0.00000   25.01348   19.93719    8.21113
     187      444        1     0.00000   11.86178    6.78549    8.21113
     188      444        1     0.00000   11.86178   19.93719   21.36283
     189      444        1     0.00000   25.01348   19.51791    4.94057
     190      444        1     0.00000   25.01348    6.36621   18.09227
     191      444        1     0.00000   11.86178   19.51791   18.09227
     192      444        1     0.00000   11.86178    6.36621    4.94057
     193      444        2     0.00000    5.68469   20.61871    0.00000
     194      444        2     0.00000    5.68469    7.46701   13.15170
     195      444        2     0.00000   18.83639   20.61871   13.15170
     196      444        2     0.00000   18.83639    7.46701    0.00000
     197      444        2     0.00000   20.61871    5.68469    0.00000
     198      444        2     0.00000   20.61871   18.83639   13.15170
     199      444        2     0.00000    7.46701    5.68469   13.15170
     200      444        2     0.00000    7.46701   18.83639    0.00000
     201      444        2     0.00000   20.61871   20.61871    0.00000
     202      444        2     0.00000   20.61871    7.46701   13.15170
     203      444        2     0.00000    7.46701   20.61871   13.15170
     204      444        2     0.00000    7.46701    7.46701    0.00000
     205      444        2     0.00000    5.68469    5.68469    0.00000
     206      444        2     0.00000    5.68469   18.83639   13.15170
     207      444        2     0.00000   18.83639    5.68469   13.15170
     208      444        2     0.00000   18.83639   18.83639    0.00000
     209      444        2     0.00000    0.00000    5.68469   20.61871
     210      444        2     0.00000    0.00000   18.83639    7.46701
     211      444        2     0.00000   13.15170    5.68469    7.46701
     212      444        2     0.00000   13.15170   18.83639   20.61871
     213      444        2     0.00000    0.00000   20.61871    5.68469
     214      444        2     0.00000    0.00000    7.46701   18.83639
     215      444        2     0.00000   13.15170   20.61871   18.83639
     216      444        2     0.00000   13.15170    7.46701    5.68469
     217      444        2     0.00000    0.00000   20.61871   20.61871
     218      444        2     0.00000    0.00000    7.46701    7.46701
     219      444        2     0.00000   13.15170   20.61871    7.46701
     220      444        2     0.00000   13.15170    7.46701   20.61871
     221      444        2     0.00000    0.00000    5.68469    5.68469
     222      444        2     0.00000    0.00000   18.83639   18.83639
     223      444        2     0.00000   13.15170    5.68469   18.83639
     224      444        2     0.00000   13.15170   18.83639    5.68469
     225      444        2     0.00000   20.61871    0.00000    5.68469
     226      444        2     0.00000   20.61871   13.15170   18.83639
     227      444        2     0.00000    7.46701    0.00000   18.83639
     228      444        2     0.00000    7.46701   13.15170    5.68469
     229      444        2     0.00000    5.68469    0.00000   20.61871
     230      444        2     0.00000    5.68469   13.15170    7.46701
     231      444        2     0.00000   18.83639    0.00000    7.46701
     232      444        2     0.00000   18.83639   13.15170   20.61871
     233      444        2     0.00000   20.61871    0.00000   20.61871
     234      444        2     0.00000   20.61871   13.15170    7.46701
     235      444        2     0.00000    7.46701    0.00000    7.46701
     236      444        2     0.00000    7.46701   13.15170   20.61871
     237      444        2     0.00000    5.68469    0.00000    5.68469
     238      444        2     0.00000    5.68469   13.15170   18.83639
     239      444        2     0.00000   18.83639    0.00000   18.83639
     240      444        2     0.00000   18.83639   13.15170    5.68469
     241      444        3     0.00000    5.37668   18.52838   24.46427
     242      444        3     0.00000    4.76407   17.91577   23.24642
     243      444        3     0.00000    5.37668    5.37668   11.31257
     244      444        3     0.00000    4.76407    4.76407   10.09472
     245      444        3     0.00000   18.52838   18.52838   11.31257
     246      444        3     0.00000   17.91577   17.91577   10.09472
     247      444        3     0.00000   20.92672    7.77502   24.46427
     248      444        3     0.00000   21.53933    8.38763   23.24642
     249      444        3     0.00000   20.92672   20.92672   11.31257
     250      444        3     0.00000   21.53933   21.53933   10.09472
     251      444        3     0.00000   20.92672   18.52838    1.83913
     252      444        3     0.00000   21.53933   17.91577    3.05698
     253      444        3     0.00000   20.92672    5.37668   14.99083
     254      444        3     0.00000   21.53933    4.76407   16.20868
     255      444        3     0.00000    5.37668    7.77502    1.83913
     256      444        3     0.00000    4.76407    8.38763    3.05698
     257      444        3     0.00000    5.37668   20.92672   14.99083
     258      444        3     0.00000    4.76407   21.53933   16.20868
     259      444        3     0.00000   18.52838   20.92672    1.83913
     260      444        3     0.00000   17.91577   21.53933    3.05698
     261      444        3     0.00000   24.46427    5.37668   18.52838
     262      444        3     0.00000   23.24642    4.76407   17.91577
     263      444        3     0.00000   11.31257    5.37668    5.37668
     264      444        3     0.00000   10.09472    4.76407    4.76407
     265      444        3     0.00000   11.31257   18.52838   18.52838
     266      444        3     0.00000   10.09472   17.91577   17.91577
     267      444        3     0.00000   24.46427   20.92672    7.77502
     268      444        3     0.00000   23.24642   21.53933    8.38763
     269      444        3     0.00000   11.31257   20.92672   20.92672
     270      444        3     0.00000   10.09472   21.53933   21.53933
     271      444        3     0.00000    1.83913   20.92672   18.52838
     272      444        3     0.00000    3.05698   21.53933   17.91577
     273      444        3     0.00000   14.99083   20.92672    5.37668
     274      444        3     0.00000   16.20868   21.53933    4.76407
     275      444        3     0.00000    1.83913    5.37668    7.77502
     276      444        3     0.00000    3.05698    4.76407    8.38763
     277      444        3     0.00000    1.83913   18.52838   20.92672
     278      444        3     0.00000    3.05698   17.91577   21.53933
     279      444        3     0.00000   14.99083    5.37668   20.92672
     280      444        3     0.00000   16.20868    4.76407   21.53933
     281      444        3     0.00000   18.52838   24.46427    5.37668
     282      444        3     0.00000   17.91577   23.24642    4.76407
     283      444        3     0.00000   18.52838   11.31257   18.52838
     284      444        3     0.00000   17.91577   10.09472   17.91577
     285      444        3     0.00000    7.77502   24.46427   20.92672
     286      444        3     0.00000    8.38763   23.24642   21.53933
     287      444        3     0.00000    7.77502   11.31257    7.77502
     288      444        3     0.00000    8.38763   10.09472    8.38763
     289      444        3     0.00000   20.92672   11.31257   20.92672
     290      444        3     0.00000   21.53933   10.09472   21.53933
     291      444        3     0.00000   18.52838    1.83913   20.92672
     292      444        3     0.00000   17.91577    3.05698   21.53933
     293      444        3     0.00000   18.52838   14.99083    7.77502
     294      444        3     0.00000   17.91577   16.20868    8.38763
     295      444        3     0.00000    7.77502    1.83913    5.37668
     296      444        3     0.00000    8.38763    3.05698    4.76407
     297      444        3     0.00000    7.77502   14.99083   18.52838
     298      444        3     0.00000    8.38763   16.20868   17.91577
     299      444        3     0.00000   20.92672    1.83913   18.52838
     300      444        3     0.00000   21.53933    3.05698   17.91577
     301      444        3     0.00000   18.52838    5.37668    1.83913
     302      444        3     0.00000   17.91577    4.76407    3.05698
     303      444        3     0.00000   18.52838   18.52838   14.99083
     304      444        3     0.00000   17.91577   17.91577   16.20868
     305      444        3     0.00000    7.77502   20.92672    1.83913
     306      444        3     0.00000    8.38763   21.53933    3.05698
     307      444        3     0.00000    7.77502    7.77502   14.99083
     308      444        3     0.00000    8.38763    8.38763   16.20868
     309      444        3     0.00000   20.92672   20.92672   14.99083
     310      444        3     0.00000   21.53933   21.53933   16.20868
     311      444        3     0.00000   18.52838   20.92672   24.46427
     312      444        3     0.00000   17.91577   21.53933   23.24642
     313      444        3     0.00000   18.52838    7.77502   11.31257
     314      444        3     0.00000   17.91577    8.38763   10.09472
     315      444        3     0.00000    7.77502    5.37668   24.46427
     316      444        3     0.00000    8.38763    4.76407   23.24642
     317      444        3     0.00000    7.77502   18.52838   11.31257
     318      444        3     0.00000    8.38763   17.91577   10.09472
     319      444        3     0.00000   20.92672   18.52838   24.46427
     320      444        3     0.00000   21.53933   17.91577   23.24642
     321      444        3     0.00000    5.37668   24.46427    7.77502
     322      444        3     0.00000    4.76407   23.24642    8.38763
     323      444        3     0.00000    5.37668   11.31257   20.92672
     324      444        3     0.00000    4.76407   10.09472   21.53933
     325      444        3     0.00000   18.52838   24.46427   20.92672
     326      444        3     0.00000   17.91577   23.24642   21.53933
     327      444        3     0.00000   20.92672   24.46427   18.52838
     328      444        3     0.00000   21.53933   23.24642   17.91577
     329      444        3     0.00000   20.92672   11.31257    5.37668
     330      444        3     0.00000   21.53933   10.09472    4.76407
     331      444        3     0.00000   20.92672    1.83913    7.77502
     332      444        3     0.00000   21.53933    3.05698    8.38763
     333      444        3     0.00000   20.92672   14.99083   20.92672
     334      444        3     0.00000   21.53933   16.20868   21.53933
     335      444        3     0.00000    5.37668    1.83913   18.52838
     336      444        3     0.00000    4.76407    3.05698   17.91577
     337      444        3     0.00000    5.37668   14.99083    5.37668
     338      444        3     0.00000    4.76407   16.20868    4.76407
     339      444        3     0.00000   18.52838   14.99083   18.52838
     340      444        3     0.00000   17.91577   16.20868   17.91577
     341      444        3     0.00000   24.46427   18.52838   20.92672
     342      444        3     0.00000   23.24642   17.91577   21.53933
     343      444        3     0.00000   11.31257   18.52838    7.77502
     344      444        3     0.00000   10.09472   17.91577    8.38763
     345      444        3     0.00000   24.46427    7.77502    5.37668
     346      444        3     0.00000   23.24642    8.38763    4.76407
     347      444        3     0.00000   24.46427   20.92672   18.52838
     348      444        3     0.00000   23.24642   21.53933   17.91577
     349      444        3     0.00000   11.31257    7.77502   18.52838
     350      444        3     0.00000   10.09472    8.38763   17.91577
     351      444        3     0.00000    1.83913   18.52838    5.37668
     352      444        3     0.00000    3.05698   17.91577    4.76407
     353      444        3     0.00000   14.99083   18.52838   18.52838
     354      444        3     0.00000   16.20868   17.91577   17.91577
     355      444        3     0.00000    1.83913    7.77502   20.92672
     356      444        3     0.00000    3.05698    8.38763   21.53933
     357      444        3     0.00000   14.99083    7.77502    7.77502
     358      444        3     0.00000   16.20868    8.38763    8.38763
     359      444        3     0.00000   14.99083   20.92672   20.92672
     360      444        3     0.00000   16.20868   21.53933   21.53933
     361      444        3     0.00000   20.92672    7.77502    1.83913
     362      444        3     0.00000   21.53933    8.38763    3.05698
     363      444        3     0.00000    5.37668   18.52838    1.83913
     364      444        3     0.00000    4.76407   17.91577    3.05698
     365      444        3     0.00000    5.37668    5.37668   14.99083
     366      444        3     0.00000    4.76407    4.76407   16.20868
     367      444        3     0.00000    5.37668    7.77502   24.46427
     368      444        3     0.00000    4.76407    8.38763   23.24642
     369      444        3     0.00000    5.37668   20.92672   11.31257
     370      444        3     0.00000    4.76407   21.53933   10.09472
     371      444        3     0.00000   20.92672    5.37668   11.31257
     372      444        3     0.00000   21.53933    4.76407   10.09472
     373      444        3     0.00000    1.83913   20.92672    7.77502
     374      444        3     0.00000    3.05698   21.53933    8.38763
     375      444        3     0.00000    1.83913    5.37668   18.52838
     376      444        3     0.00000    3.05698    4.76407   17.91577
     377      444        3     0.00000   14.99083    5.37668    5.37668
     378      444        3     0.00000   16.20868    4.76407    4.76407
     379      444        3     0.00000   24.46427    5.37668    7.77502
     380      444        3     0.00000   23.24642    4.76407    8.38763
     381      444        3     0.00000   11.31257    5.37668   20.92672
     382      444        3     0.00000   10.09472    4.76407   21.53933
     383      444        3     0.00000   11.31257   20.92672    5.37668
     384      444        3     0.00000   10.09472   21.53933    4.76407
     385      444        3     0.00000    7.77502    1.83913   20.92672
     386      444        3     0.00000    8.38763    3.05698   21.53933
     387      444        3     0.00000    7.77502   14.99083    7.77502