Created on Fri Feb 05 17:04:53 2021 

        1980 atoms
        2340 bonds
        4248 angles
        5472 dihedrals
        3024 impropers

           5 atom types
           7 bond types
          10 angle types
           4 dihedral types
           1 improper types
           0.000000  36.744000 xlo xhi
           0.000000  36.744000 ylo yhi
           0.000000  45.753400 zlo zhi
           0.000000   0.000000   0.000000 xy xz yz

Masses

    1    63.546000000 # Cu4+2
    2     1.007940000 # H_
    3    12.010700000 # C_R
    4    12.010700000 # C_3
    5    15.999400000 # O_2

Bond Coeffs

    1       70.296579        3.032715  # Cu4+2 Cu4+2
    2      221.999373        2.029549  # Cu4+2 O_2
    3      357.440381        1.081418  # H_ C_R
    4      462.655054        1.379256  # C_R C_R
    5      369.943935        1.486000  # C_R C_3
    6      714.557442        1.269010  # C_R O_2
    7      391.669513        1.458000  # C_R C_R

Angle Coeffs

    1              cosine/periodic      222.868952               1               4 # O_2 Cu4+2 O_2
    2              cosine/periodic      105.916453               1               4 # O_2 Cu4+2 Cu4+2
    3              cosine/periodic      114.578032              -1               3 # H_ C_R C_R
    4              cosine/periodic      222.595017              -1               3 # C_R C_R C_R
    5              cosine/periodic      198.274298              -1               3 # C_3 C_R C_R
    6              cosine/periodic      413.556852              -1               3 # O_2 C_R O_2
    7              cosine/periodic      275.428492              -1               3 # O_2 C_R C_R
    8              cosine/periodic      204.366560              -1               3 # C_R C_R C_R
    9                      fourier      226.550294        0.343737        0.374972        0.281246 # C_R C_3 C_R
   10              cosine/periodic      154.420358              -1               3 # Cu4+2 O_2 C_R

Dihedral Coeffs

    1        1.497136              -1               2 # H_ C_R C_R H_
    2        0.083333               1               3 # C_R C_R C_3 C_R
    3        2.245703              -1               2 # C_R C_R O_2 Cu4+2
    4        0.555556              -1               2 # O_2 C_R C_R C_R

Improper Coeffs

    1        2.000000        1.000000       -1.000000        0.000000               0 # C_R C_R H_ C_R

Pair Coeffs

    1        0.005000        3.113691 # Cu4+2 Cu4+2
    2        0.044000        2.571134 # H_ H_
    3        0.105000        3.430851 # C_R C_R
    4        0.105000        3.430851 # C_3 C_3
    5        0.060000        3.118146 # O_2 O_2

Atoms

       1      444        1     0.00000    0.00000    7.44323    0.00000
       2      444        1     0.00000    0.00000    4.80477    0.00000
       3      444        1     0.00000    4.80477    0.00000   11.43835
       4      444        1     0.00000    7.44323    0.00000   11.43835
       5      444        2     0.00000    7.48475    8.10818   18.33110
       6      444        2     0.00000    9.14313    8.11185   19.91188
       7      444        2     0.00000    4.76325    4.13982   18.33110
       8      444        2     0.00000    3.10487    4.13615   19.91188
       9      444        2     0.00000    4.13982    7.48475    6.89275
      10      444        2     0.00000    4.13615    9.14313    8.47353
      11      444        2     0.00000    8.10818    4.76325    6.89275
      12      444        2     0.00000    8.11185    3.10487    8.47353
      13      444        2     0.00000    4.76325    8.10818    4.54560
      14      444        2     0.00000    3.10487    8.11185    2.96482
      15      444        2     0.00000    7.48475    4.13982    4.54560
      16      444        2     0.00000    9.14313    4.13615    2.96482
      17      444        2     0.00000    8.10818    7.48475   15.98395
      18      444        2     0.00000    8.11185    9.14313   14.40317
      19      444        2     0.00000    4.13982    4.76325   15.98395
      20      444        2     0.00000    4.13615    3.10487   14.40317
      21      444        2     0.00000    4.76325    4.13982    4.54560
      22      444        2     0.00000    3.10487    4.13615    2.96482
      23      444        2     0.00000    7.48475    8.10818    4.54560
      24      444        2     0.00000    9.14313    8.11185    2.96482
      25      444        2     0.00000    8.10818    4.76325   15.98395
      26      444        2     0.00000    8.11185    3.10487   14.40317
      27      444        2     0.00000    4.13982    7.48475   15.98395
      28      444        2     0.00000    4.13615    9.14313   14.40317
      29      444        2     0.00000    7.48475    4.13982   18.33110
      30      444        2     0.00000    9.14313    4.13615   19.91188
      31      444        2     0.00000    4.76325    8.10818   18.33110
      32      444        2     0.00000    3.10487    8.11185   19.91188
      33      444        2     0.00000    4.13982    4.76325    6.89275
      34      444        2     0.00000    4.13615    3.10487    8.47353
      35      444        2     0.00000    8.10818    7.48475    6.89275
      36      444        2     0.00000    8.11185    9.14313    8.47353
      37      444        3     0.00000    7.82892    7.30103   18.63879
      38      444        3     0.00000    8.81856    7.30226   19.59161
      39      444        3     0.00000    4.41908    4.94697   18.63879
      40      444        3     0.00000    3.42944    4.94574   19.59161
      41      444        3     0.00000    4.94697    7.82892    7.20044
      42      444        3     0.00000    4.94574    8.81856    8.15326
      43      444        3     0.00000    7.30103    4.41908    7.20044
      44      444        3     0.00000    7.30226    3.42944    8.15326
      45      444        3     0.00000    4.41908    7.30103    4.23791
      46      444        3     0.00000    3.42944    7.30226    3.28509
      47      444        3     0.00000    7.82892    4.94697    4.23791
      48      444        3     0.00000    8.81856    4.94574    3.28509
      49      444        3     0.00000    7.30103    7.82892   15.67626
      50      444        3     0.00000    7.30226    8.81856   14.72344
      51      444        3     0.00000    4.94697    4.41908   15.67626
      52      444        3     0.00000    4.94574    3.42944   14.72344
      53      444        3     0.00000    4.41908    4.94697    4.23791
      54      444        3     0.00000    3.42944    4.94574    3.28509
      55      444        3     0.00000    7.82892    7.30103    4.23791
      56      444        3     0.00000    8.81856    7.30226    3.28509
      57      444        3     0.00000    7.30103    4.41908   15.67626
      58      444        3     0.00000    7.30226    3.42944   14.72344
      59      444        3     0.00000    4.94697    7.82892   15.67626
      60      444        3     0.00000    4.94574    8.81856   14.72344
      61      444        3     0.00000    7.82892    4.94697   18.63879
      62      444        3     0.00000    8.81856    4.94574   19.59161
      63      444        3     0.00000    4.41908    7.30103   18.63879
      64      444        3     0.00000    3.42944    7.30226   19.59161
      65      444        3     0.00000    4.94697    4.41908    7.20044
      66      444        3     0.00000    4.94574    3.42944    8.15326
      67      444        3     0.00000    7.30103    7.82892    7.20044
      68      444        3     0.00000    7.30226    8.81856    8.15326
      69      444        3     0.00000    7.34390    6.12400   18.13665
      70      444        3     0.00000   10.47326    6.12400   21.12892
      71      444        3     0.00000    9.33910    6.12400   20.07888
      72      444        3     0.00000    4.90410    6.12400   18.13665
      73      444        3     0.00000    1.77474    6.12400   21.12892
      74      444        3     0.00000    2.90890    6.12400   20.07888
      75      444        3     0.00000    6.12400    7.34390    6.69830
      76      444        3     0.00000    6.12400   10.47326    9.69057
      77      444        3     0.00000    6.12400    9.33910    8.64053
      78      444        3     0.00000    6.12400    4.90410    6.69830
      79      444        3     0.00000    6.12400    1.77474    9.69057
      80      444        3     0.00000    6.12400    2.90890    8.64053
      81      444        3     0.00000    4.90410    6.12400    4.74005
      82      444        3     0.00000    1.77474    6.12400    1.74778
      83      444        3     0.00000    2.90890    6.12400    2.79782
      84      444        3     0.00000    7.34390    6.12400    4.74005
      85      444        3     0.00000   10.47326    6.12400    1.74778
      86      444        3     0.00000    9.33910    6.12400    2.79782
      87      444        3     0.00000    6.12400    7.34390   16.17840
      88      444        3     0.00000    6.12400   10.47326   13.18613
      89      444        3     0.00000    6.12400    9.33910   14.23617
      90      444        3     0.00000    6.12400    4.90410   16.17840
      91      444        3     0.00000    6.12400    1.77474   13.18613
      92      444        3     0.00000    6.12400    2.90890   14.23617
      93      444        4     0.00000    6.12400    6.12400   17.15752
      94      444        4     0.00000    6.12400    6.12400    5.71917
      95      444        5     0.00000   10.86275    7.25694   21.51485
      96      444        5     0.00000    1.38525    4.99106   21.51485
      97      444        5     0.00000    4.99106   10.86275   10.07650
      98      444        5     0.00000    7.25694    1.38525   10.07650
      99      444        5     0.00000    1.38525    7.25694    1.36185
     100      444        5     0.00000   10.86275    4.99106    1.36185
     101      444        5     0.00000    7.25694   10.86275   12.80020
     102      444        5     0.00000    4.99106    1.38525   12.80020
     103      444        5     0.00000    1.38525    4.99106    1.36185
     104      444        5     0.00000   10.86275    7.25694    1.36185
     105      444        5     0.00000    7.25694    1.38525   12.80020
     106      444        5     0.00000    4.99106   10.86275   12.80020
     107      444        5     0.00000   10.86275    4.99106   21.51485
     108      444        5     0.00000    1.38525    7.25694   21.51485
     109      444        5     0.00000    4.99106    1.38525   10.07650
     110      444        5     0.00000    7.25694   10.86275   10.07650
     111      444        1     0.00000    0.00000    7.44323   22.87670
     112      444        1     0.00000    0.00000    4.80477   22.87670
     113      444        1     0.00000    4.80477    0.00000   34.31505
     114      444        1     0.00000    7.44323    0.00000   34.31505
     115      444        2     0.00000    7.48475    8.10818   41.20780
     116      444        2     0.00000    9.14313    8.11185   42.78858
     117      444        2     0.00000    4.76325    4.13982   41.20780
     118      444        2     0.00000    3.10487    4.13615   42.78858
     119      444        2     0.00000    4.13982    7.48475   29.76945
     120      444        2     0.00000    4.13615    9.14313   31.35023
     121      444        2     0.00000    8.10818    4.76325   29.76945
     122      444        2     0.00000    8.11185    3.10487   31.35023
     123      444        2     0.00000    4.76325    8.10818   27.42230
     124      444        2     0.00000    3.10487    8.11185   25.84152
     125      444        2     0.00000    7.48475    4.13982   27.42230
     126      444        2     0.00000    9.14313    4.13615   25.84152
     127      444        2     0.00000    8.10818    7.48475   38.86065
     128      444        2     0.00000    8.11185    9.14313   37.27987
     129      444        2     0.00000    4.13982    4.76325   38.86065
     130      444        2     0.00000    4.13615    3.10487   37.27987
     131      444        2     0.00000    4.76325    4.13982   27.42230
     132      444        2     0.00000    3.10487    4.13615   25.84152
     133      444        2     0.00000    7.48475    8.10818   27.42230
     134      444        2     0.00000    9.14313    8.11185   25.84152
     135      444        2     0.00000    8.10818    4.76325   38.86065
     136      444        2     0.00000    8.11185    3.10487   37.27987
     137      444        2     0.00000    4.13982    7.48475   38.86065
     138      444        2     0.00000    4.13615    9.14313   37.27987
     139      444        2     0.00000    7.48475    4.13982   41.20780
     140      444        2     0.00000    9.14313    4.13615   42.78858
     141      444        2     0.00000    4.76325    8.10818   41.20780
     142      444        2     0.00000    3.10487    8.11185   42.78858
     143      444        2     0.00000    4.13982    4.76325   29.76945
     144      444        2     0.00000    4.13615    3.10487   31.35023
     145      444        2     0.00000    8.10818    7.48475   29.76945
     146      444        2     0.00000    8.11185    9.14313   31.35023
     147      444        3     0.00000    7.82892    7.30103   41.51549
     148      444        3     0.00000    8.81856    7.30226   42.46831
     149      444        3     0.00000    4.41908    4.94697   41.51549
     150      444        3     0.00000    3.42944    4.94574   42.46831
     151      444        3     0.00000    4.94697    7.82892   30.07714
     152      444        3     0.00000    4.94574    8.81856   31.02996
     153      444        3     0.00000    7.30103    4.41908   30.07714
     154      444        3     0.00000    7.30226    3.42944   31.02996
     155      444        3     0.00000    4.41908    7.30103   27.11461
     156      444        3     0.00000    3.42944    7.30226   26.16179
     157      444        3     0.00000    7.82892    4.94697   27.11461
     158      444        3     0.00000    8.81856    4.94574   26.16179
     159      444        3     0.00000    7.30103    7.82892   38.55296
     160      444        3     0.00000    7.30226    8.81856   37.60014
     161      444        3     0.00000    4.94697    4.41908   38.55296
     162      444        3     0.00000    4.94574    3.42944   37.60014
     163      444        3     0.00000    4.41908    4.94697   27.11461
     164      444        3     0.00000    3.42944    4.94574   26.16179
     165      444        3     0.00000    7.82892    7.30103   27.11461
     166      444        3     0.00000    8.81856    7.30226   26.16179
     167      444        3     0.00000    7.30103    4.41908   38.55296
     168      444        3     0.00000    7.30226    3.42944   37.60014
     169      444        3     0.00000    4.94697    7.82892   38.55296
     170      444        3     0.00000    4.94574    8.81856   37.60014
     171      444        3     0.00000    7.82892    4.94697   41.51549
     172      444        3     0.00000    8.81856    4.94574   42.46831
     173      444        3     0.00000    4.41908    7.30103   41.51549
     174      444        3     0.00000    3.42944    7.30226   42.46831
     175      444        3     0.00000    4.94697    4.41908   30.07714
     176      444        3     0.00000    4.94574    3.42944   31.02996
     177      444        3     0.00000    7.30103    7.82892   30.07714
     178      444        3     0.00000    7.30226    8.81856   31.02996
     179      444        3     0.00000    7.34390    6.12400   41.01335
     180      444        3     0.00000   10.47326    6.12400   44.00562
     181      444        3     0.00000    9.33910    6.12400   42.95558
     182      444        3     0.00000    4.90410    6.12400   41.01335
     183      444        3     0.00000    1.77474    6.12400   44.00562
     184      444        3     0.00000    2.90890    6.12400   42.95558
     185      444        3     0.00000    6.12400    7.34390   29.57500
     186      444        3     0.00000    6.12400   10.47326   32.56727
     187      444        3     0.00000    6.12400    9.33910   31.51723
     188      444        3     0.00000    6.12400    4.90410   29.57500
     189      444        3     0.00000    6.12400    1.77474   32.56727
     190      444        3     0.00000    6.12400    2.90890   31.51723
     191      444        3     0.00000    4.90410    6.12400   27.61675
     192      444        3     0.00000    1.77474    6.12400   24.62448
     193      444        3     0.00000    2.90890    6.12400   25.67452
     194      444        3     0.00000    7.34390    6.12400   27.61675
     195      444        3     0.00000   10.47326    6.12400   24.62448
     196      444        3     0.00000    9.33910    6.12400   25.67452
     197      444        3     0.00000    6.12400    7.34390   39.05510
     198      444        3     0.00000    6.12400   10.47326   36.06283
     199      444        3     0.00000    6.12400    9.33910   37.11287
     200      444        3     0.00000    6.12400    4.90410   39.05510
     201      444        3     0.00000    6.12400    1.77474   36.06283
     202      444        3     0.00000    6.12400    2.90890   37.11287
     203      444        4     0.00000    6.12400    6.12400   40.03422
     204      444        4     0.00000    6.12400    6.12400   28.59587
     205      444        5     0.00000   10.86275    7.25694   44.39155
     206      444        5     0.00000    1.38525    4.99106   44.39155
     207      444        5     0.00000    4.99106   10.86275   32.95320
     208      444        5     0.00000    7.25694    1.38525   32.95320
     209      444        5     0.00000    1.38525    7.25694   24.23855
     210      444        5     0.00000   10.86275    4.99106   24.23855
     211      444        5     0.00000    7.25694   10.86275   35.67690
     212      444        5     0.00000    4.99106    1.38525   35.67690
     213      444        5     0.00000    1.38525    4.99106   24.23855
     214      444        5     0.00000   10.86275    7.25694   24.23855
     215      444        5     0.00000    7.25694    1.38525   35.67690
     216      444        5     0.00000    4.99106   10.86275   35.67690
     217      444        5     0.00000   10.86275    4.99106   44.39155
     218      444        5     0.00000    1.38525    7.25694   44.39155
     219      444        5     0.00000    4.99106    1.38525   32.95320
     220      444        5     0.00000    7.25694   10.86275   32.95320
     221      444        1     0.00000    0.00000   19.69123    0.00000
     222      444        1     0.00000    0.00000   17.05277    0.00000
     223      444        1     0.00000    4.80477   12.24800   11.43835
     224      444        1     0.00000    7.44323   12.24800   11.43835
     225      444        2     0.00000    7.48475   20.35618   18.33110
     226      444        2     0.00000    9.14313   20.35985   19.91188
     227      444        2     0.00000    4.76325   16.38782   18.33110
     228      444        2     0.00000    3.10487   16.38415   19.91188
     229      444        2     0.00000    4.13982   19.73275    6.89275
     230      444        2     0.00000    4.13615   21.39113    8.47353
     231      444        2     0.00000    8.10818   17.01125    6.89275
     232      444        2     0.00000    8.11185   15.35287    8.47353
     233      444        2     0.00000    4.76325   20.35618    4.54560
     234      444        2     0.00000    3.10487   20.35985    2.96482
     235      444        2     0.00000    7.48475   16.38782    4.54560
     236      444        2     0.00000    9.14313   16.38415    2.96482
     237      444        2     0.00000    8.10818   19.73275   15.98395
     238      444        2     0.00000    8.11185   21.39113   14.40317
     239      444        2     0.00000    4.13982   17.01125   15.98395
     240      444        2     0.00000    4.13615   15.35287   14.40317
     241      444        2     0.00000    4.76325   16.38782    4.54560
     242      444        2     0.00000    3.10487   16.38415    2.96482
     243      444        2     0.00000    7.48475   20.35618    4.54560
     244      444        2     0.00000    9.14313   20.35985    2.96482
     245      444        2     0.00000    8.10818   17.01125   15.98395
     246      444        2     0.00000    8.11185   15.35287   14.40317
     247      444        2     0.00000    4.13982   19.73275   15.98395
     248      444        2     0.00000    4.13615   21.39113   14.40317
     249      444        2     0.00000    7.48475   16.38782   18.33110
     250      444        2     0.00000    9.14313   16.38415   19.91188
     251      444        2     0.00000    4.76325   20.35618   18.33110
     252      444        2     0.00000    3.10487   20.35985   19.91188
     253      444        2     0.00000    4.13982   17.01125    6.89275
     254      444        2     0.00000    4.13615   15.35287    8.47353
     255      444        2     0.00000    8.10818   19.73275    6.89275
     256      444        2     0.00000    8.11185   21.39113    8.47353
     257      444        3     0.00000    7.82892   19.54903   18.63879
     258      444        3     0.00000    8.81856   19.55026   19.59161
     259      444        3     0.00000    4.41908   17.19497   18.63879
     260      444        3     0.00000    3.42944   17.19374   19.59161
     261      444        3     0.00000    4.94697   20.07692    7.20044
     262      444        3     0.00000    4.94574   21.06656    8.15326
     263      444        3     0.00000    7.30103   16.66708    7.20044
     264      444        3     0.00000    7.30226   15.67744    8.15326
     265      444        3     0.00000    4.41908   19.54903    4.23791
     266      444        3     0.00000    3.42944   19.55026    3.28509
     267      444        3     0.00000    7.82892   17.19497    4.23791
     268      444        3     0.00000    8.81856   17.19374    3.28509
     269      444        3     0.00000    7.30103   20.07692   15.67626
     270      444        3     0.00000    7.30226   21.06656   14.72344
     271      444        3     0.00000    4.94697   16.66708   15.67626
     272      444        3     0.00000    4.94574   15.67744   14.72344
     273      444        3     0.00000    4.41908   17.19497    4.23791
     274      444        3     0.00000    3.42944   17.19374    3.28509
     275      444        3     0.00000    7.82892   19.54903    4.23791
     276      444        3     0.00000    8.81856   19.55026    3.28509
     277      444        3     0.00000    7.30103   16.66708   15.67626
     278      444        3     0.00000    7.30226   15.67744   14.72344
     279      444        3     0.00000    4.94697   20.07692   15.67626
     280      444        3     0.00000    4.94574   21.06656   14.72344
     281      444        3     0.00000    7.82892   17.19497   18.63879
     282      444        3     0.00000    8.81856   17.19374   19.59161
     283      444        3     0.00000    4.41908   19.54903   18.63879
     284      444        3     0.00000    3.42944   19.55026   19.59161
     285      444        3     0.00000    4.94697   16.66708    7.20044
     286      444        3     0.00000    4.94574   15.67744    8.15326
     287      444        3     0.00000    7.30103   20.07692    7.20044
     288      444        3     0.00000    7.30226   21.06656    8.15326
     289      444        3     0.00000    7.34390   18.37200   18.13665
     290      444        3     0.00000   10.47326   18.37200   21.12892
     291      444        3     0.00000    9.33910   18.37200   20.07888
     292      444        3     0.00000    4.90410   18.37200   18.13665
     293      444        3     0.00000    1.77474   18.37200   21.12892
     294      444        3     0.00000    2.90890   18.37200   20.07888
     295      444        3     0.00000    6.12400   19.59190    6.69830
     296      444        3     0.00000    6.12400   22.72126    9.69057
     297      444        3     0.00000    6.12400   21.58710    8.64053
     298      444        3     0.00000    6.12400   17.15210    6.69830
     299      444        3     0.00000    6.12400   14.02274    9.69057
     300      444        3     0.00000    6.12400   15.15690    8.64053
     301      444        3     0.00000    4.90410   18.37200    4.74005
     302      444        3     0.00000    1.77474   18.37200    1.74778
     303      444        3     0.00000    2.90890   18.37200    2.79782
     304      444        3     0.00000    7.34390   18.37200    4.74005
     305      444        3     0.00000   10.47326   18.37200    1.74778
     306      444        3     0.00000    9.33910   18.37200    2.79782
     307      444        3     0.00000    6.12400   19.59190   16.17840
     308      444        3     0.00000    6.12400   22.72126   13.18613
     309      444        3     0.00000    6.12400   21.58710   14.23617
     310      444        3     0.00000    6.12400   17.15210   16.17840
     311      444        3     0.00000    6.12400   14.02274   13.18613
     312      444        3     0.00000    6.12400   15.15690   14.23617
     313      444        4     0.00000    6.12400   18.37200   17.15752
     314      444        4     0.00000    6.12400   18.37200    5.71917
     315      444        5     0.00000   10.86275   19.50494   21.51485
     316      444        5     0.00000    1.38525   17.23906   21.51485
     317      444        5     0.00000    4.99106   23.11075   10.07650
     318      444        5     0.00000    7.25694   13.63325   10.07650
     319      444        5     0.00000    1.38525   19.50494    1.36185
     320      444        5     0.00000   10.86275   17.23906    1.36185
     321      444        5     0.00000    7.25694   23.11075   12.80020
     322      444        5     0.00000    4.99106   13.63325   12.80020
     323      444        5     0.00000    1.38525   17.23906    1.36185
     324      444        5     0.00000   10.86275   19.50494    1.36185
     325      444        5     0.00000    7.25694   13.63325   12.80020
     326      444        5     0.00000    4.99106   23.11075   12.80020
     327      444        5     0.00000   10.86275   17.23906   21.51485
     328      444        5     0.00000    1.38525   19.50494   21.51485
     329      444        5     0.00000    4.99106   13.63325   10.07650
     330      444        5     0.00000    7.25694   23.11075   10.07650
     331      444        1     0.00000    0.00000   19.69123   22.87670
     332      444        1     0.00000    0.00000   17.05277   22.87670
     333      444        1     0.00000    4.80477   12.24800   34.31505
     334      444        1     0.00000    7.44323   12.24800   34.31505
     335      444        2     0.00000    7.48475   20.35618   41.20780
     336      444        2     0.00000    9.14313   20.35985   42.78858
     337      444        2     0.00000    4.76325   16.38782   41.20780
     338      444        2     0.00000    3.10487   16.38415   42.78858
     339      444        2     0.00000    4.13982   19.73275   29.76945
     340      444        2     0.00000    4.13615   21.39113   31.35023
     341      444        2     0.00000    8.10818   17.01125   29.76945
     342      444        2     0.00000    8.11185   15.35287   31.35023
     343      444        2     0.00000    4.76325   20.35618   27.42230
     344      444        2     0.00000    3.10487   20.35985   25.84152
     345      444        2     0.00000    7.48475   16.38782   27.42230
     346      444        2     0.00000    9.14313   16.38415   25.84152
     347      444        2     0.00000    8.10818   19.73275   38.86065
     348      444        2     0.00000    8.11185   21.39113   37.27987
     349      444        2     0.00000    4.13982   17.01125   38.86065
     350      444        2     0.00000    4.13615   15.35287   37.27987
     351      444        2     0.00000    4.76325   16.38782   27.42230
     352      444        2     0.00000    3.10487   16.38415   25.84152
     353      444        2     0.00000    7.48475   20.35618   27.42230
     354      444        2     0.00000    9.14313   20.35985   25.84152
     355      444        2     0.00000    8.10818   17.01125   38.86065
     356      444        2     0.00000    8.11185   15.35287   37.27987
     357      444        2     0.00000    4.13982   19.73275   38.86065
     358      444        2     0.00000    4.13615   21.39113   37.27987
     359      444        2     0.00000    7.48475   16.38782   41.20780
     360      444        2     0.00000    9.14313   16.38415   42.78858
     361      444        2     0.00000    4.76325   20.35618   41.20780
     362      444        2     0.00000    3.10487   20.35985   42.78858
     363      444        2     0.00000    4.13982   17.01125   29.76945
     364      444        2     0.00000    4.13615   15.35287   31.35023
     365      444        2     0.00000    8.10818   19.73275   29.76945
     366      444        2     0.00000    8.11185   21.39113   31.35023
     367      444        3     0.00000    7.82892   19.54903   41.51549
     368      444        3     0.00000    8.81856   19.55026   42.46831
     369      444        3     0.00000    4.41908   17.19497   41.51549
     370      444        3     0.00000    3.42944   17.19374   42.46831
     371      444        3     0.00000    4.94697   20.07692   30.07714
     372      444        3     0.00000    4.94574   21.06656   31.02996
     373      444        3     0.00000    7.30103   16.66708   30.07714
     374      444        3     0.00000    7.30226   15.67744   31.02996
     375      444        3     0.00000    4.41908   19.54903   27.11461
     376      444        3     0.00000    3.42944   19.55026   26.16179
     377      444        3     0.00000    7.82892   17.19497   27.11461
     378      444        3     0.00000    8.81856   17.19374   26.16179
     379      444        3     0.00000    7.30103   20.07692   38.55296